                         Program Version 5.0.4 -  RELEASE  -
|  1> ! MP2 6-31g(d) Opt PAL4
|  2>
|  3> *xyz 0 1
|  4> C  -1.647   0.862   0.080
|  5> C  -0.249   0.942   0.085
|  6> C  -2.291  -0.379   0.014
|  7> C   0.534  -0.240   0.020
|  8> C  -1.535  -1.552  -0.045
|  9> C  -0.138  -1.485  -0.042
| 10> H  -2.029  -2.513  -0.094
| 11> H   0.429  -2.403  -0.097
| 12> C   2.039  -0.163  -0.024
| 13> H  -2.244   1.761   0.139
| 14> N   0.326   2.206   0.176
| 15> O   2.688   0.856  -0.222
| 16> O   2.744  -1.349   0.167
| 17> H   3.684  -1.174   0.121
| 18> H  -3.370  -0.431   0.015
| 19> H   1.306   2.156  -0.04
| 20> H  -0.247   2.906  -0.243
| 21> *
| 22>
| 23>                          ****END OF INPUT****
 Total Charge           Charge          ....    0
 Multiplicity           Mult            ....    1
 Number of Electrons    NEL             ....   72
MP2 TOTAL ENERGY:     -474.725663645 Eh
FINAL SINGLE POINT ENERGY      -474.725663645151
MP2 TOTAL ENERGY:     -474.733093106 Eh
FINAL SINGLE POINT ENERGY      -474.733093106286
MP2 TOTAL ENERGY:     -474.733864480 Eh
FINAL SINGLE POINT ENERGY      -474.733864480185
MP2 TOTAL ENERGY:     -474.733482547 Eh
FINAL SINGLE POINT ENERGY      -474.733482546595
MP2 TOTAL ENERGY:     -474.734132295 Eh
FINAL SINGLE POINT ENERGY      -474.734132294587
MP2 TOTAL ENERGY:     -474.734148314 Eh
FINAL SINGLE POINT ENERGY      -474.734148314267
MP2 TOTAL ENERGY:     -474.734155107 Eh
FINAL SINGLE POINT ENERGY      -474.734155106790
MP2 TOTAL ENERGY:     -474.734157782 Eh
FINAL SINGLE POINT ENERGY      -474.734157782217
MP2 TOTAL ENERGY:     -474.734160687 Eh
FINAL SINGLE POINT ENERGY      -474.734160687308
                    ***********************HURRAY********************

CARTESIAN COORDINATES (ANGSTROEM)
---------------------------------
  C     -1.637988    0.839984    0.047676
  C     -0.232605    0.958929    0.049905
  C     -2.259921   -0.399397   -0.003812
  C      0.533682   -0.234674    0.042315
  C     -1.498103   -1.575360   -0.016149
  C     -0.113377   -1.484618   -0.006535
  H     -1.982893   -2.546888   -0.054632
  H      0.494028   -2.383843   -0.021943
  C      2.006219   -0.172850   -0.002838
  H     -2.236837    1.749222    0.067827
  N      0.338460    2.212625    0.170820
  O      2.689521    0.846756   -0.100760
  O      2.598316   -1.397013    0.069257
  H      3.559110   -1.209921    0.017925
  H     -3.346665   -0.450881   -0.012894
  H      1.320744    2.266877   -0.076109
  H     -0.231691    2.981054   -0.160051

 Multiplicity           Mult            ....    1
 Number of Electrons    NEL             ....   72
 Basis Dimension        Dim             ....  154

ORBITAL ENERGIES
----------------

  NO   OCC          E(Eh)            E(eV)
   0   2.0000     -20.614068      -560.9373
   1   2.0000     -20.552223      -559.2544
   2   2.0000     -15.562333      -423.4726
   3   2.0000     -11.395889      -310.0979
   4   2.0000     -11.301647      -307.5334
   5   2.0000     -11.254162      -306.2413
   6   2.0000     -11.252053      -306.1839
   7   2.0000     -11.242469      -305.9231
   8   2.0000     -11.231387      -305.6216
   9   2.0000     -11.226754      -305.4955
  10   2.0000      -1.456446       -39.6319
  11   2.0000      -1.349119       -36.7114
  12   2.0000      -1.228942       -33.4412
  13   2.0000      -1.136252       -30.9190
  14   2.0000      -1.041617       -28.3439
  15   2.0000      -0.996865       -27.1261
  16   2.0000      -0.889075       -24.1930
  17   2.0000      -0.835909       -22.7462
  18   2.0000      -0.796755       -21.6808
  19   2.0000      -0.717523       -19.5248
  20   2.0000      -0.700309       -19.0564
  21   2.0000      -0.689479       -18.7617
  22   2.0000      -0.683237       -18.5918
  23   2.0000      -0.632269       -17.2049
  24   2.0000      -0.626795       -17.0559
  25   2.0000      -0.608089       -16.5469
  26   2.0000      -0.594218       -16.1695
  27   2.0000      -0.575117       -15.6497
  28   2.0000      -0.539202       -14.6724
  29   2.0000      -0.527644       -14.3579
  30   2.0000      -0.506867       -13.7926
  31   2.0000      -0.478634       -13.0243
  32   2.0000      -0.450314       -12.2537
  33   2.0000      -0.444793       -12.1034
  34   2.0000      -0.350057        -9.5255
  35   2.0000      -0.297878        -8.1057
  36   0.0000       0.093625         2.5477
  37   0.0000       0.152998         4.1633
  38   0.0000       0.227092         6.1795
  39   0.0000       0.234188         6.3726
  40   0.0000       0.241180         6.5628

MULLIKEN ATOMIC CHARGES
-----------------------
   0 C :   -0.195043
   1 C :    0.263027
   2 C :   -0.179704
   3 C :   -0.084366
   4 C :   -0.173891
   5 C :   -0.190925
   6 H :    0.176584
   7 H :    0.207277
   8 C :    0.610250
   9 H :    0.170864
  10 N :   -0.854367
  11 O :   -0.479269
  12 O :   -0.646602
  13 H :    0.447899
  14 H :    0.176680
  15 H :    0.401288
  16 H :    0.350301
Sum of atomic charges:    0.0000000

LOEWDIN ATOMIC CHARGES
----------------------
   0 C :   -0.153371
   1 C :    0.042943
   2 C :   -0.132176
   3 C :   -0.100118
   4 C :   -0.152845
   5 C :   -0.124832
   6 H :    0.143248
   7 H :    0.156351
   8 C :    0.163279
   9 H :    0.140832
  10 N :   -0.418113
  11 O :   -0.254967
  12 O :   -0.324267
  13 H :    0.344646
  14 H :    0.142712
  15 H :    0.271582
  16 H :    0.255096

  Mayer bond orders larger than 0.100000
B(  0-C ,  1-C ) :   1.2682 B(  0-C ,  2-C ) :   1.4088 B(  0-C ,  9-H ) :   0.8942
B(  1-C ,  3-C ) :   1.2735 B(  1-C , 10-N ) :   1.0169 B(  2-C ,  4-C ) :   1.3100
B(  2-C , 14-H ) :   0.9003 B(  3-C ,  5-C ) :   1.2949 B(  3-C ,  8-C ) :   0.9861
B(  4-C ,  5-C ) :   1.3840 B(  4-C ,  6-H ) :   0.9002 B(  5-C ,  7-H ) :   0.8822
B(  8-C , 11-O ) :   1.7035 B(  8-C , 12-O ) :   0.9914 B( 10-N , 15-H ) :   0.7317
B( 10-N , 16-H ) :   0.8021 B( 12-O , 13-H ) :   0.7065

MP2 TOTAL ENERGY:     -474.734159951 Eh
FINAL SINGLE POINT ENERGY      -474.734159950742

DIPOLE MOMENT
-------------
                                X             Y             Z
Electronic contribution:      4.21662      -0.43850       0.01837
Nuclear contribution   :     -4.52619       0.49248      -0.36779
                        -----------------------------------------
Total Dipole Moment    :     -0.30957       0.05398      -0.34942
                        -----------------------------------------
Magnitude (a.u.)       :      0.46994
Magnitude (Debye)      :      1.19449

Rotational constants in cm-1:     0.076044     0.040401     0.026437
Rotational constants in MHz :  2279.727849  1211.192848   792.550562

                             ****ORCA TERMINATED NORMALLY****
TOTAL RUN TIME: 0 days 0 hours 7 minutes 46 seconds 840 msec
