                         Program Version 5.0.4 -  RELEASE  -
|  1> ! HF 6-31g(d) PAL4
|  2>
|  3> %paras
|  4> B=2,10,81
|  5> end
|  6>
|  7> *int 0 1
|  8>  C      0   0   0     0.000000000000     0.00000000     0.00000000
|  9>  C      1   0   0     1.410408792387     0.00000000     0.00000000
| 10>  C      1   2   0     1.387629674561   121.46540976     0.00000000
| 11>  C      2   1   3     1.418429715822   117.86149259   357.95682680
| 12>  C      3   1   2     1.401216550379   120.41314464     1.85928728
| 13>  C      5   3   1     1.387728922094   119.18088952   358.56672225
| 14>  H      5   3   1     1.086448109445   120.54301814   179.88964476
| 15>  H      6   5   3     1.085257810950   120.27815199   180.37435074
| 16>  C      4   2   1     1.474525319058   120.29082617   177.88235003
| 17>  H      1   2   3     1.088916721971   118.52499331   181.18172947
| 18>  N      2   1   3     1.382927159506   119.21307977   183.26061362
| 19>  O      9   4   2     1.231295327431   126.25299933   356.29999903
| 20>  O      9   4   2     1.361745810407   113.26023456   176.60892359
| 21>  H     13   9   4     0.980186199946   104.58659711   179.32147663
| 22>  H      3   1   2     1.088000665320   119.35735619   180.54826763
| 23>  H     11   2   1     1.014297666448   115.28426224   195.45494424
| 24>  H     11   2   1     1.012437828384   115.27373933   333.44819984
| 25>  O      9   4   2     {B}               90.00000000    90.00000000
| 26>  H     18   9   4     0.957200000000   127.74000000     0.00000000
| 27>  H     18   9   4     0.957200000000   127.74000000   180.00000000
| 28> *
| 29>
| 30>                          ****END OF INPUT****
 Total Charge           Charge          ....    0
 Multiplicity           Mult            ....    1
 Number of Electrons    NEL             ....   82
 Basis Dimension        Dim             ....  172

ORBITAL ENERGIES
----------------

  NO   OCC          E(Eh)            E(eV)
   0   2.0000     -20.583161      -560.0963
   1   2.0000     -20.563811      -559.5697
   2   2.0000     -20.511627      -558.1498
   3   2.0000     -15.548493      -423.0960
   4   2.0000     -11.378293      -309.6191
   5   2.0000     -11.286441      -307.1197
   6   2.0000     -11.241714      -305.9026
   7   2.0000     -11.238023      -305.8021
   8   2.0000     -11.226662      -305.4930
   9   2.0000     -11.221584      -305.3548
  10   2.0000     -11.216960      -305.2290
  11   2.0000      -1.435627       -39.0654
  12   2.0000      -1.360112       -37.0105
  13   2.0000      -1.319543       -35.9066
  14   2.0000      -1.215369       -33.0719
  15   2.0000      -1.124090       -30.5880
  16   2.0000      -1.028559       -27.9885
  17   2.0000      -0.985225       -26.8093
  18   2.0000      -0.875667       -23.8281
  19   2.0000      -0.822594       -22.3839
  20   2.0000      -0.782369       -21.2893
  21   2.0000      -0.727495       -19.7962
  22   2.0000      -0.701025       -19.0759
  23   2.0000      -0.683489       -18.5987
  24   2.0000      -0.675798       -18.3894
  25   2.0000      -0.669254       -18.2113
  26   2.0000      -0.662814       -18.0361
  27   2.0000      -0.616431       -16.7739
  28   2.0000      -0.594028       -16.1643
  29   2.0000      -0.580494       -15.7960
  30   2.0000      -0.556240       -15.1361
  31   2.0000      -0.539854       -14.6902
  32   2.0000      -0.529703       -14.4139
  33   2.0000      -0.512278       -13.9398
  34   2.0000      -0.505937       -13.7672
  35   2.0000      -0.494386       -13.4529
  36   2.0000      -0.438620       -11.9355
  37   2.0000      -0.435735       -11.8570
  38   2.0000      -0.416331       -11.3289
  39   2.0000      -0.336592        -9.1591
  40   2.0000      -0.286110        -7.7854
  41   0.0000       0.117099         3.1864
  42   0.0000       0.162817         4.4305
  43   0.0000       0.210664         5.7325
  44   0.0000       0.242684         6.6038
  45   0.0000       0.253937         6.9100

MULLIKEN ATOMIC CHARGES
-----------------------
   0 C :   -0.272754
   1 C :    0.370789
   2 C :   -0.163023
   3 C :   -0.203584
   4 C :   -0.255945
   5 C :   -0.157451
   6 H :    0.198575
   7 H :    0.247711
   8 C :    0.985362
   9 H :    0.195329
  10 N :   -0.965285
  11 O :   -0.695341
  12 O :   -0.783800
  13 H :    0.464358
  14 H :    0.207511
  15 H :    0.443098
  16 H :    0.363902
  17 O :   -0.902720
  18 H :    0.465281
  19 H :    0.457990
Sum of atomic charges:    0.0000000

LOEWDIN ATOMIC CHARGES
----------------------
   0 C :   -0.199918
   1 C :    0.100540
   2 C :   -0.088880
   3 C :   -0.134155
   4 C :   -0.200271
   5 C :   -0.079503
   6 H :    0.135586
   7 H :    0.157517
   8 C :    0.277971
   9 H :    0.133541
  10 N :   -0.452300
  11 O :   -0.392552
  12 O :   -0.376689
  13 H :    0.347058
  14 H :    0.140235
  15 H :    0.282576
  16 H :    0.251788
  17 O :   -0.567034
  18 H :    0.334219
  19 H :    0.330271

  Mayer bond orders larger than 0.100000
B(  0-C ,  1-C ) :   1.3492 B(  0-C ,  2-C ) :   1.5006 B(  0-C ,  9-H ) :   0.9400
B(  1-C ,  3-C ) :   1.3721 B(  1-C , 10-N ) :   1.0217 B(  2-C ,  4-C ) :   1.3951
B(  2-C , 14-H ) :   0.9402 B(  3-C ,  5-C ) :   1.3950 B(  3-C ,  8-C ) :   1.0420
B(  4-C ,  5-C ) :   1.4741 B(  4-C ,  6-H ) :   0.9433 B(  5-C ,  7-H ) :   0.9162
B(  8-C , 11-O ) :   1.6558 B(  8-C , 12-O ) :   0.9161 B( 10-N , 15-H ) :   0.7438
B( 10-N , 16-H ) :   0.8337 B( 12-O , 13-H ) :   0.7395 B( 17-O , 18-H ) :   0.7538
B( 17-O , 19-H ) :   0.7583

FINAL SINGLE POINT ENERGY      -549.317033090285
FINAL SINGLE POINT ENERGY      -549.329263963946
FINAL SINGLE POINT ENERGY      -549.338314523183
FINAL SINGLE POINT ENERGY      -549.344858764465
FINAL SINGLE POINT ENERGY      -549.349481445615
FINAL SINGLE POINT ENERGY      -549.352666687375
FINAL SINGLE POINT ENERGY      -549.354802322566
FINAL SINGLE POINT ENERGY      -549.356191495682
FINAL SINGLE POINT ENERGY      -549.357064810476
FINAL SINGLE POINT ENERGY      -549.357591874602
FINAL SINGLE POINT ENERGY      -549.357925820457
FINAL SINGLE POINT ENERGY      -549.357932892781
FINAL SINGLE POINT ENERGY      -549.357939726409
FINAL SINGLE POINT ENERGY      -549.357946329755
FINAL SINGLE POINT ENERGY      -549.357952710982
FINAL SINGLE POINT ENERGY      -549.357958878005
FINAL SINGLE POINT ENERGY      -549.357964838489
FINAL SINGLE POINT ENERGY      -549.357970599855
FINAL SINGLE POINT ENERGY      -549.357976169271

CARTESIAN COORDINATES (ANGSTROEM)
---------------------------------
  C      0.000000    0.000000    0.000000
  C      1.410409    0.000000    0.000000
  C     -0.724320    1.183586    0.000000
  C      2.073292    1.253208   -0.044708
  C     -0.064411    2.419058   -0.039207
  C      1.323048    2.445080   -0.047743
  H     -0.629466    3.347001   -0.041088
  H      1.852429    3.392160   -0.071804
  C      3.545723    1.317753    0.000066
  H     -0.520004   -0.956528    0.019731
  N      2.085359   -1.205080   -0.068653
  O      4.312423    0.364488    0.139874
  O      4.032585    2.583306   -0.125203
  H      5.005653    2.480252   -0.067898
  H     -1.811547    1.143588    0.009074
  H      3.068328   -1.165755    0.178380
  H      1.581522   -2.004078    0.295737
  O      3.872404    0.788893   -9.980594
  H      3.135669    0.724774  -10.588329
  H      4.647419    0.791042  -10.542359

FINAL SINGLE POINT ENERGY      -549.357981553667

DIPOLE MOMENT
-------------
                                X             Y             Z
Electronic contribution:      2.13272       1.16839       9.14189
Nuclear contribution   :     -2.66108      -1.12153      -9.65406
                        -----------------------------------------
Total Dipole Moment    :     -0.52836       0.04686      -0.51218
                        -----------------------------------------
Magnitude (a.u.)       :      0.73735
Magnitude (Debye)      :      1.87419

Rotational constants in cm-1:     0.027197     0.008845     0.008090
Rotational constants in MHz :   815.354229   265.166365   242.543148

                             ****ORCA TERMINATED NORMALLY****
TOTAL RUN TIME: 0 days 0 hours 5 minutes 38 seconds 583 msec
