                         Program Version 5.0.4 -  RELEASE  -
|  1> ! HF 6-31g(d) PAL4
|  2>
|  3> %paras
|  4> B=2,10,81
|  5> end
|  6>
|  7> *int 0 1
|  8>  C      0   0   0     0.000000000000     0.00000000     0.00000000
|  9>  C      1   0   0     1.410408792387     0.00000000     0.00000000
| 10>  C      1   2   0     1.387629674561   121.46540976     0.00000000
| 11>  C      2   1   3     1.418429715822   117.86149259   357.95682680
| 12>  C      3   1   2     1.401216550379   120.41314464     1.85928728
| 13>  C      5   3   1     1.387728922094   119.18088952   358.56672225
| 14>  H      5   3   1     1.086448109445   120.54301814   179.88964476
| 15>  H      6   5   3     1.085257810950   120.27815199   180.37435074
| 16>  C      4   2   1     1.474525319058   120.29082617   177.88235003
| 17>  H      1   2   3     1.088916721971   118.52499331   181.18172947
| 18>  N      2   1   3     1.382927159506   119.21307977   183.26061362
| 19>  O      9   4   2     1.231295327431   126.25299933   356.29999903
| 20>  O      9   4   2     1.361745810407   113.26023456   176.60892359
| 21>  H     13   9   4     0.980186199946   104.58659711   179.32147663
| 22>  H      3   1   2     1.088000665320   119.35735619   180.54826763
| 23>  H     11   2   1     1.014297666448   115.28426224   195.45494424
| 24>  H     11   2   1     1.012437828384   115.27373933   333.44819984
| 25>  H      4   2   1     {B}               90.00000000    90.00000000
| 26>  O     18   4   2     0.957200000000   180.00000000    90.00000000
| 27>  H     19   4   2     0.957200000000   104.52000000   180.00000000
| 28> *
| 29>
| 30>                          ****END OF INPUT****
 Total Charge           Charge          ....    0
 Multiplicity           Mult            ....    1
 Number of Electrons    NEL             ....   82
 Basis Dimension        Dim             ....  172

ORBITAL ENERGIES
----------------

  NO   OCC          E(Eh)            E(eV)
   0   2.0000     -20.623967      -561.2067
   1   2.0000     -20.561277      -559.5008
   2   2.0000     -20.531578      -558.6926
   3   2.0000     -15.569251      -423.6609
   4   2.0000     -11.405679      -310.3643
   5   2.0000     -11.312372      -307.8253
   6   2.0000     -11.263268      -306.4891
   7   2.0000     -11.262998      -306.4818
   8   2.0000     -11.252652      -306.2002
   9   2.0000     -11.239818      -305.8510
  10   2.0000     -11.236203      -305.7526
  11   2.0000      -1.466256       -39.8989
  12   2.0000      -1.358225       -36.9592
  13   2.0000      -1.323355       -36.0103
  14   2.0000      -1.237203       -33.6660
  15   2.0000      -1.146856       -31.2075
  16   2.0000      -1.053792       -28.6751
  17   2.0000      -1.006439       -27.3866
  18   2.0000      -0.899351       -24.4726
  19   2.0000      -0.846132       -23.0244
  20   2.0000      -0.806319       -21.9411
  21   2.0000      -0.727000       -19.7827
  22   2.0000      -0.709930       -19.3182
  23   2.0000      -0.698089       -18.9960
  24   2.0000      -0.697265       -18.9736
  25   2.0000      -0.689633       -18.7659
  26   2.0000      -0.640875       -17.4391
  27   2.0000      -0.636195       -17.3117
  28   2.0000      -0.617695       -16.8083
  29   2.0000      -0.603407       -16.4195
  30   2.0000      -0.584548       -15.9064
  31   2.0000      -0.559233       -15.2175
  32   2.0000      -0.544077       -14.8051
  33   2.0000      -0.533726       -14.5234
  34   2.0000      -0.516171       -14.0457
  35   2.0000      -0.488617       -13.2959
  36   2.0000      -0.476429       -12.9643
  37   2.0000      -0.457292       -12.4436
  38   2.0000      -0.452680       -12.3180
  39   2.0000      -0.360881        -9.8201
  40   2.0000      -0.306994        -8.3537
  41   0.0000       0.081909         2.2288
  42   0.0000       0.142565         3.8794
  43   0.0000       0.216950         5.9035
  44   0.0000       0.223868         6.0917
  45   0.0000       0.235276         6.4022

MULLIKEN ATOMIC CHARGES
-----------------------
   0 C :   -0.258776
   1 C :    0.411764
   2 C :   -0.149257
   3 C :   -0.351882
   4 C :   -0.241238
   5 C :   -0.143264
   6 H :    0.211192
   7 H :    0.256387
   8 C :    0.894908
   9 H :    0.209529
  10 N :   -0.956282
  11 O :   -0.639401
  12 O :   -0.771517
  13 H :    0.484746
  14 H :    0.222573
  15 H :    0.447193
  16 H :    0.376816
  17 H :    0.515034
  18 O :   -0.951941
  19 H :    0.433415
Sum of atomic charges:   -0.0000000

LOEWDIN ATOMIC CHARGES
----------------------
   0 C :   -0.190963
   1 C :    0.120306
   2 C :   -0.064480
   3 C :   -0.178726
   4 C :   -0.191355
   5 C :   -0.071388
   6 H :    0.142148
   7 H :    0.160802
   8 C :    0.271323
   9 H :    0.140957
  10 N :   -0.439591
  11 O :   -0.348891
  12 O :   -0.372862
  13 H :    0.359756
  14 H :    0.147964
  15 H :    0.283916
  16 H :    0.259773
  17 H :    0.318433
  18 O :   -0.667715
  19 H :    0.320594

  Mayer bond orders larger than 0.100000
B(  0-C ,  1-C ) :   1.3400 B(  0-C ,  2-C ) :   1.5134 B(  0-C ,  9-H ) :   0.9350
B(  1-C ,  3-C ) :   1.3316 B(  1-C , 10-N ) :   1.0450 B(  2-C ,  4-C ) :   1.3685
B(  2-C , 14-H ) :   0.9342 B(  3-C ,  5-C ) :   1.3401 B(  3-C ,  8-C ) :   1.0530
B(  4-C ,  5-C ) :   1.5106 B(  4-C ,  6-H ) :   0.9387 B(  5-C ,  7-H ) :   0.9137
B(  8-C , 11-O ) :   1.7091 B(  8-C , 12-O ) :   0.9602 B( 10-N , 15-H ) :   0.7454
B( 10-N , 16-H ) :   0.8261 B( 12-O , 13-H ) :   0.7230 B( 17-H , 18-O ) :   0.6677
B( 18-O , 19-H ) :   0.7836

FINAL SINGLE POINT ENERGY      -549.351839056568
FINAL SINGLE POINT ENERGY      -549.354516396222
FINAL SINGLE POINT ENERGY      -549.356376310096
FINAL SINGLE POINT ENERGY      -549.357642411710
FINAL SINGLE POINT ENERGY      -549.358482152057
FINAL SINGLE POINT ENERGY      -549.359021058204
FINAL SINGLE POINT ENERGY      -549.359351620105
FINAL SINGLE POINT ENERGY      -549.359540869081
FINAL SINGLE POINT ENERGY      -549.359635952996
FINAL SINGLE POINT ENERGY      -549.359668938762
FINAL SINGLE POINT ENERGY      -549.358231162282
FINAL SINGLE POINT ENERGY      -549.358228782322
FINAL SINGLE POINT ENERGY      -549.358226506768
FINAL SINGLE POINT ENERGY      -549.358224330537
FINAL SINGLE POINT ENERGY      -549.358222248805
FINAL SINGLE POINT ENERGY      -549.358220257005
FINAL SINGLE POINT ENERGY      -549.358218350809
FINAL SINGLE POINT ENERGY      -549.358216526112
FINAL SINGLE POINT ENERGY      -549.358214779027

CARTESIAN COORDINATES (ANGSTROEM)
---------------------------------
  C      0.000000    0.000000    0.000000
  C      1.410409    0.000000    0.000000
  C     -0.724320    1.183586    0.000000
  C      2.073292    1.253208   -0.044708
  C     -0.064411    2.419058   -0.039207
  C      1.323048    2.445080   -0.047743
  H     -0.629466    3.347001   -0.041088
  H      1.852429    3.392160   -0.071804
  C      3.545723    1.317753    0.000066
  H     -0.520004   -0.956528    0.019731
  N      2.085359   -1.205080   -0.068653
  O      4.312423    0.364488    0.139874
  O      4.032585    2.583306   -0.125203
  H      5.005653    2.480252   -0.067898
  H     -1.811547    1.143588    0.009074
  H      3.068328   -1.165755    0.178380
  H      1.581522   -2.004078    0.295737
  H      2.073292    1.609733    9.948934
  O      2.073292    1.643860   10.905525
  H      2.506338    2.471108   11.116153

FINAL SINGLE POINT ENERGY      -549.358213105861

DIPOLE MOMENT
-------------
                                X             Y             Z
Electronic contribution:      3.69553       0.27083      -9.81625
Nuclear contribution   :     -3.94062       0.40722       9.62094
                        -----------------------------------------
Total Dipole Moment    :     -0.24509       0.67805      -0.19532
                        -----------------------------------------
Magnitude (a.u.)       :      0.74697
Magnitude (Debye)      :      1.89865

Rotational constants in cm-1:     0.026429     0.007969     0.007296
Rotational constants in MHz :   792.310047   238.894622   218.717789

                             ****ORCA TERMINATED NORMALLY****
TOTAL RUN TIME: 0 days 0 hours 5 minutes 26 seconds 480 msec
