                         Program Version 5.0.4 -  RELEASE  -
|  1> ! HF 6-31g(d) PAL4
|  2>
|  3> %paras
|  4> B=2,10,81
|  5> end
|  6>
|  7> *int 0 1
|  8>  C      0   0   0     0.000000000000     0.00000000     0.00000000
|  9>  C      1   0   0     1.410408792387     0.00000000     0.00000000
| 10>  C      1   2   0     1.387629674561   121.46540976     0.00000000
| 11>  C      2   1   3     1.418429715822   117.86149259   357.95682680
| 12>  C      3   1   2     1.401216550379   120.41314464     1.85928728
| 13>  C      5   3   1     1.387728922094   119.18088952   358.56672225
| 14>  H      5   3   1     1.086448109445   120.54301814   179.88964476
| 15>  H      6   5   3     1.085257810950   120.27815199   180.37435074
| 16>  C      4   2   1     1.474525319058   120.29082617   177.88235003
| 17>  H      1   2   3     1.088916721971   118.52499331   181.18172947
| 18>  N      2   1   3     1.382927159506   119.21307977   183.26061362
| 19>  O      9   4   2     1.231295327431   126.25299933   356.29999903
| 20>  O      9   4   2     1.361745810407   113.26023456   176.60892359
| 21>  H     13   9   4     0.980186199946   104.58659711   179.32147663
| 22>  H      3   1   2     1.088000665320   119.35735619   180.54826763
| 23>  H     11   2   1     1.014297666448   115.28426224   195.45494424
| 24>  H     11   2   1     1.012437828384   115.27373933   333.44819984
| 25>  H     11   2   1     {B}               90.00000000    90.00000000
| 26>  O     18   11  2     0.957200000000   180.00000000    90.00000000
| 27>  H     19   11  2     0.957200000000   104.52000000   180.00000000
| 28> *
| 29>
| 30>                          ****END OF INPUT****
 Total Charge           Charge          ....    0
 Multiplicity           Mult            ....    1
 Number of Electrons    NEL             ....   82
 Basis Dimension        Dim             ....  172

ORBITAL ENERGIES
----------------

  NO   OCC          E(Eh)            E(eV)
   0   2.0000     -20.617577      -561.0328
   1   2.0000     -20.557955      -559.4104
   2   2.0000     -20.515172      -558.2462
   3   2.0000     -15.579631      -423.9433
   4   2.0000     -11.401444      -310.2491
   5   2.0000     -11.308405      -307.7173
   6   2.0000     -11.258130      -306.3493
   7   2.0000     -11.256025      -306.2920
   8   2.0000     -11.249847      -306.1239
   9   2.0000     -11.238126      -305.8050
  10   2.0000     -11.232431      -305.6500
  11   2.0000      -1.460622       -39.7456
  12   2.0000      -1.354208       -36.8499
  13   2.0000      -1.306665       -35.5562
  14   2.0000      -1.244145       -33.8549
  15   2.0000      -1.143474       -31.1155
  16   2.0000      -1.046923       -28.4882
  17   2.0000      -1.004025       -27.3209
  18   2.0000      -0.894573       -24.3426
  19   2.0000      -0.842708       -22.9312
  20   2.0000      -0.803510       -21.8646
  21   2.0000      -0.724661       -19.7190
  22   2.0000      -0.706278       -19.2188
  23   2.0000      -0.699918       -19.0457
  24   2.0000      -0.693000       -18.8575
  25   2.0000      -0.677960       -18.4482
  26   2.0000      -0.638061       -17.3625
  27   2.0000      -0.630399       -17.1540
  28   2.0000      -0.614623       -16.7247
  29   2.0000      -0.602134       -16.3849
  30   2.0000      -0.580058       -15.7842
  31   2.0000      -0.555337       -15.1115
  32   2.0000      -0.536669       -14.6035
  33   2.0000      -0.528505       -14.3813
  34   2.0000      -0.512231       -13.9385
  35   2.0000      -0.483394       -13.1538
  36   2.0000      -0.462292       -12.5796
  37   2.0000      -0.459103       -12.4928
  38   2.0000      -0.451334       -12.2814
  39   2.0000      -0.353641        -9.6230
  40   2.0000      -0.308467        -8.3938
  41   0.0000       0.088261         2.4017
  42   0.0000       0.144935         3.9439
  43   0.0000       0.221991         6.0407
  44   0.0000       0.228924         6.2293
  45   0.0000       0.232603         6.3295

MULLIKEN ATOMIC CHARGES
-----------------------
   0 C :   -0.256253
   1 C :    0.346245
   2 C :   -0.154351
   3 C :   -0.205519
   4 C :   -0.246348
   5 C :   -0.148554
   6 H :    0.209683
   7 H :    0.256045
   8 C :    0.893212
   9 H :    0.204401
  10 N :   -1.001144
  11 O :   -0.652944
  12 O :   -0.768508
  13 H :    0.482902
  14 H :    0.219440
  15 H :    0.451469
  16 H :    0.381239
  17 H :    0.522283
  18 O :   -0.962449
  19 H :    0.429153
Sum of atomic charges:    0.0000000

LOEWDIN ATOMIC CHARGES
----------------------
   0 C :   -0.190576
   1 C :    0.100576
   2 C :   -0.072360
   3 C :   -0.142240
   4 C :   -0.187570
   5 C :   -0.064919
   6 H :    0.141349
   7 H :    0.161556
   8 C :    0.281226
   9 H :    0.138166
  10 N :   -0.448656
  11 O :   -0.358984
  12 O :   -0.369077
  13 H :    0.358700
  14 H :    0.146310
  15 H :    0.285018
  16 H :    0.260682
  17 H :    0.322568
  18 O :   -0.679122
  19 H :    0.317356

  Mayer bond orders larger than 0.100000
B(  0-C ,  1-C ) :   1.3651 B(  0-C ,  2-C ) :   1.4974 B(  0-C ,  9-H ) :   0.9367
B(  1-C ,  3-C ) :   1.3748 B(  1-C , 10-N ) :   0.9842 B(  2-C ,  4-C ) :   1.3897
B(  2-C , 14-H ) :   0.9353 B(  3-C ,  5-C ) :   1.3694 B(  3-C ,  8-C ) :   1.0593
B(  4-C ,  5-C ) :   1.4902 B(  4-C ,  6-H ) :   0.9392 B(  5-C ,  7-H ) :   0.9132
B(  8-C , 11-O ) :   1.6942 B(  8-C , 12-O ) :   0.9645 B( 10-N , 15-H ) :   0.7402
B( 10-N , 16-H ) :   0.8251 B( 12-O , 13-H ) :   0.7243 B( 17-H , 18-O ) :   0.6711
B( 18-O , 19-H ) :   0.7874

FINAL SINGLE POINT ENERGY      -549.362119881306
FINAL SINGLE POINT ENERGY      -549.362968263173
FINAL SINGLE POINT ENERGY      -549.363348561510
FINAL SINGLE POINT ENERGY      -549.363429016940
FINAL SINGLE POINT ENERGY      -549.363325902259
FINAL SINGLE POINT ENERGY      -549.363117131986
FINAL SINGLE POINT ENERGY      -549.362852912780
FINAL SINGLE POINT ENERGY      -549.362564085444
FINAL SINGLE POINT ENERGY      -549.362268508212
FINAL SINGLE POINT ENERGY      -549.361975852651
FINAL SINGLE POINT ENERGY      -549.358327720868
FINAL SINGLE POINT ENERGY      -549.358322978625
FINAL SINGLE POINT ENERGY      -549.358318417277
FINAL SINGLE POINT ENERGY      -549.358314028467
FINAL SINGLE POINT ENERGY      -549.358309804291
FINAL SINGLE POINT ENERGY      -549.358305737275
FINAL SINGLE POINT ENERGY      -549.358301820347
FINAL SINGLE POINT ENERGY      -549.358298046814
FINAL SINGLE POINT ENERGY      -549.358294410325

CARTESIAN COORDINATES (ANGSTROEM)
---------------------------------
  C      0.000000    0.000000    0.000000
  C      1.410409    0.000000    0.000000
  C     -0.724320    1.183586    0.000000
  C      2.073292    1.253208   -0.044708
  C     -0.064411    2.419058   -0.039207
  C      1.323048    2.445080   -0.047743
  H     -0.629466    3.347001   -0.041088
  H      1.852429    3.392160   -0.071804
  C      3.545723    1.317753    0.000066
  H     -0.520004   -0.956528    0.019731
  N      2.085359   -1.205080   -0.068653
  O      4.312423    0.364488    0.139874
  O      4.032585    2.583306   -0.125203
  H      5.005653    2.480252   -0.067898
  H     -1.811547    1.143588    0.009074
  H      3.068328   -1.165755    0.178380
  H      1.581522   -2.004078    0.295737
  H      2.085359   -0.636302  -10.052465
  O      2.085359   -0.581859  -11.008115
  H      2.537607   -1.375670  -11.293715

FINAL SINGLE POINT ENERGY      -549.358290904870

DIPOLE MOMENT
-------------
                                X             Y             Z
Electronic contribution:      3.68186       2.52503       9.82630
Nuclear contribution   :     -3.91274      -3.05629      -8.95961
                        -----------------------------------------
Total Dipole Moment    :     -0.23088      -0.53126       0.86669
                        -----------------------------------------
Magnitude (a.u.)       :      1.04244
Magnitude (Debye)      :      2.64967

Rotational constants in cm-1:     0.026564     0.007737     0.007090
Rotational constants in MHz :   796.372750   231.960798   212.555078

                             ****ORCA TERMINATED NORMALLY****
TOTAL RUN TIME: 0 days 0 hours 5 minutes 15 seconds 860 msec
