                         Program Version 5.0.4 -  RELEASE  -
|  1> ! HF 6-31g(d) PAL4
|  2>
|  3> %paras
|  4> B=2,10,81
|  5> end
|  6>
|  7> *int 0 1
|  8>  C      0   0   0     0.000000000000     0.00000000     0.00000000
|  9>  C      1   0   0     1.410408792387     0.00000000     0.00000000
| 10>  C      1   2   0     1.387629674561   121.46540976     0.00000000
| 11>  C      2   1   3     1.418429715822   117.86149259   357.95682680
| 12>  C      3   1   2     1.401216550379   120.41314464     1.85928728
| 13>  C      5   3   1     1.387728922094   119.18088952   358.56672225
| 14>  H      5   3   1     1.086448109445   120.54301814   179.88964476
| 15>  H      6   5   3     1.085257810950   120.27815199   180.37435074
| 16>  C      4   2   1     1.474525319058   120.29082617   177.88235003
| 17>  H      1   2   3     1.088916721971   118.52499331   181.18172947
| 18>  N      2   1   3     1.382927159506   119.21307977   183.26061362
| 19>  O      9   4   2     1.231295327431   126.25299933   356.29999903
| 20>  O      9   4   2     1.361745810407   113.26023456   176.60892359
| 21>  H     13   9   4     0.980186199946   104.58659711   179.32147663
| 22>  H      3   1   2     1.088000665320   119.35735619   180.54826763
| 23>  H     11   2   1     1.014297666448   115.28426224   195.45494424
| 24>  H     11   2   1     1.012437828384   115.27373933   333.44819984
| 25>  H      9   4   2     {B}               90.00000000    90.00000000
| 26>  O     18   9   4     0.957200000000   180.00000000    90.00000000
| 27>  H     19   9   4     0.957200000000   104.52000000   180.00000000
| 28> *
| 29>
| 30>                          ****END OF INPUT****
 Total Charge           Charge          ....    0
 Multiplicity           Mult            ....    1
 Number of Electrons    NEL             ....   82
 Basis Dimension        Dim             ....  172

ORBITAL ENERGIES
----------------

  NO   OCC          E(Eh)            E(eV)
   0   2.0000     -20.627739      -561.3093
   1   2.0000     -20.566754      -559.6498
   2   2.0000     -20.538917      -558.8923
   3   2.0000     -15.566531      -423.5869
   4   2.0000     -11.407450      -310.4125
   5   2.0000     -11.306733      -307.6719
   6   2.0000     -11.257803      -306.3404
   7   2.0000     -11.256569      -306.3068
   8   2.0000     -11.247955      -306.0724
   9   2.0000     -11.233985      -305.6923
  10   2.0000     -11.229418      -305.5680
  11   2.0000      -1.472111       -40.0582
  12   2.0000      -1.363969       -37.1155
  13   2.0000      -1.327060       -36.1111
  14   2.0000      -1.233244       -33.5583
  15   2.0000      -1.140277       -31.0285
  16   2.0000      -1.047744       -28.5106
  17   2.0000      -1.000540       -27.2261
  18   2.0000      -0.897762       -24.4293
  19   2.0000      -0.840977       -22.8842
  20   2.0000      -0.803986       -21.8776
  21   2.0000      -0.724648       -19.7187
  22   2.0000      -0.713212       -19.4075
  23   2.0000      -0.704116       -19.1600
  24   2.0000      -0.693623       -18.8744
  25   2.0000      -0.689722       -18.7683
  26   2.0000      -0.638857       -17.3842
  27   2.0000      -0.636449       -17.3186
  28   2.0000      -0.613501       -16.6942
  29   2.0000      -0.598856       -16.2957
  30   2.0000      -0.582946       -15.8628
  31   2.0000      -0.553057       -15.0494
  32   2.0000      -0.543664       -14.7938
  33   2.0000      -0.532853       -14.4997
  34   2.0000      -0.510783       -13.8991
  35   2.0000      -0.495020       -13.4702
  36   2.0000      -0.478668       -13.0252
  37   2.0000      -0.458752       -12.4833
  38   2.0000      -0.451023       -12.2730
  39   2.0000      -0.354841        -9.6557
  40   2.0000      -0.301171        -8.1953
  41   0.0000       0.084085         2.2881
  42   0.0000       0.150273         4.0891
  43   0.0000       0.207135         5.6364
  44   0.0000       0.220294         5.9945
  45   0.0000       0.236344         6.4312

MULLIKEN ATOMIC CHARGES
-----------------------
   0 C :   -0.268751
   1 C :    0.394125
   2 C :   -0.151330
   3 C :   -0.214872
   4 C :   -0.253859
   5 C :   -0.135490
   6 H :    0.207970
   7 H :    0.254638
   8 C :    0.791884
   9 H :    0.204316
  10 N :   -0.956682
  11 O :   -0.639135
  12 O :   -0.761160
  13 H :    0.481753
  14 H :    0.218705
  15 H :    0.441633
  16 H :    0.372592
  17 H :    0.502587
  18 O :   -0.926621
  19 H :    0.437699
Sum of atomic charges:    0.0000000

LOEWDIN ATOMIC CHARGES
----------------------
   0 C :   -0.197845
   1 C :    0.120997
   2 C :   -0.067942
   3 C :   -0.160264
   4 C :   -0.196578
   5 C :   -0.060047
   6 H :    0.140604
   7 H :    0.160667
   8 C :    0.249152
   9 H :    0.138310
  10 N :   -0.440713
  11 O :   -0.353836
  12 O :   -0.367308
  13 H :    0.357582
  14 H :    0.145872
  15 H :    0.280806
  16 H :    0.257491
  17 H :    0.314748
  18 O :   -0.645203
  19 H :    0.323507

  Mayer bond orders larger than 0.100000
B(  0-C ,  1-C ) :   1.3436 B(  0-C ,  2-C ) :   1.5101 B(  0-C ,  9-H ) :   0.9369
B(  1-C ,  3-C ) :   1.3459 B(  1-C , 10-N ) :   1.0347 B(  2-C ,  4-C ) :   1.3742
B(  2-C , 14-H ) :   0.9358 B(  3-C ,  5-C ) :   1.3527 B(  3-C ,  8-C ) :   1.0814
B(  4-C ,  5-C ) :   1.5052 B(  4-C ,  6-H ) :   0.9397 B(  5-C ,  7-H ) :   0.9138
B(  8-C , 11-O ) :   1.6808 B(  8-C , 12-O ) :   0.9462 B( 10-N , 15-H ) :   0.7507
B( 10-N , 16-H ) :   0.8283 B( 12-O , 13-H ) :   0.7250 B( 17-H , 18-O ) :   0.6969
B( 18-O , 19-H ) :   0.7803

FINAL SINGLE POINT ENERGY      -549.348169308157
FINAL SINGLE POINT ENERGY      -549.351061161791
FINAL SINGLE POINT ENERGY      -549.353173122949
FINAL SINGLE POINT ENERGY      -549.354709053053
FINAL SINGLE POINT ENERGY      -549.355819513421
FINAL SINGLE POINT ENERGY      -549.356617243155
FINAL SINGLE POINT ENERGY      -549.357187123465
FINAL SINGLE POINT ENERGY      -549.357592729391
FINAL SINGLE POINT ENERGY      -549.357880973048
FINAL SINGLE POINT ENERGY      -549.358085828179
FINAL SINGLE POINT ENERGY      -549.358301053551
FINAL SINGLE POINT ENERGY      -549.358297767834
FINAL SINGLE POINT ENERGY      -549.358294577375
FINAL SINGLE POINT ENERGY      -549.358291479482
FINAL SINGLE POINT ENERGY      -549.358288471506
FINAL SINGLE POINT ENERGY      -549.358285550835
FINAL SINGLE POINT ENERGY      -549.358282714899
FINAL SINGLE POINT ENERGY      -549.358279961179
FINAL SINGLE POINT ENERGY      -549.358277287207

CARTESIAN COORDINATES (ANGSTROEM)
---------------------------------
  C      0.000000    0.000000    0.000000
  C      1.410409    0.000000    0.000000
  C     -0.724320    1.183586    0.000000
  C      2.073292    1.253208   -0.044708
  C     -0.064411    2.419058   -0.039207
  C      1.323048    2.445080   -0.047743
  H     -0.629466    3.347001   -0.041088
  H      1.852429    3.392160   -0.071804
  C      3.545723    1.317753    0.000066
  H     -0.520004   -0.956528    0.019731
  N      2.085359   -1.205080   -0.068653
  O      4.312423    0.364488    0.139874
  O      4.032585    2.583306   -0.125203
  H      5.005653    2.480252   -0.067898
  H     -1.811547    1.143588    0.009074
  H      3.068328   -1.165755    0.178380
  H      1.581522   -2.004078    0.295737
  H      3.872404    0.788893   -9.980594
  O      3.903674    0.738270  -10.935943
  H      4.836825    0.766140  -11.147329

FINAL SINGLE POINT ENERGY      -549.358274690574

DIPOLE MOMENT
-------------
                                X             Y             Z
Electronic contribution:      1.96888       1.19449       9.75086
Nuclear contribution   :     -1.87022      -1.04332      -8.82903
                        -----------------------------------------
Total Dipole Moment    :      0.09865       0.15117       0.92182
                        -----------------------------------------
Magnitude (a.u.)       :      0.93933
Magnitude (Debye)      :      2.38759

Rotational constants in cm-1:     0.027116     0.007691     0.007108
Rotational constants in MHz :   812.924742   230.564426   213.099865

                             ****ORCA TERMINATED NORMALLY****
TOTAL RUN TIME: 0 days 0 hours 5 minutes 34 seconds 562 msec
