                         Program Version 5.0.4 -  RELEASE  -
|  1> ! HF 6-31g(d) PAL4
|  2>
|  3> %paras
|  4> B=2,10,81
|  5> end
|  6>
|  7> *int 0 1
|  8>  C      0   0   0     0.000000000000     0.00000000     0.00000000
|  9>  C      1   0   0     1.410408792387     0.00000000     0.00000000
| 10>  C      1   2   0     1.387629674561   121.46540976     0.00000000
| 11>  C      2   1   3     1.418429715822   117.86149259   357.95682680
| 12>  C      3   1   2     1.401216550379   120.41314464     1.85928728
| 13>  C      5   3   1     1.387728922094   119.18088952   358.56672225
| 14>  H      5   3   1     1.086448109445   120.54301814   179.88964476
| 15>  H      6   5   3     1.085257810950   120.27815199   180.37435074
| 16>  C      4   2   1     1.474525319058   120.29082617   177.88235003
| 17>  H      1   2   3     1.088916721971   118.52499331   181.18172947
| 18>  N      2   1   3     1.382927159506   119.21307977   183.26061362
| 19>  O      9   4   2     1.231295327431   126.25299933   356.29999903
| 20>  O      9   4   2     1.361745810407   113.26023456   176.60892359
| 21>  H     13   9   4     0.980186199946   104.58659711   179.32147663
| 22>  H      3   1   2     1.088000665320   119.35735619   180.54826763
| 23>  H     11   2   1     1.014297666448   115.28426224   195.45494424
| 24>  H     11   2   1     1.012437828384   115.27373933   333.44819984
| 25>  H      2   1   3     {B}               90.00000000    90.00000000
| 26>  O     18   2   1     0.957200000000   180.00000000    90.00000000
| 27>  H     19   2   1     0.957200000000   104.52000000   180.00000000
| 28> *
| 29>
| 30>                          ****END OF INPUT****
 Total Charge           Charge          ....    0
 Multiplicity           Mult            ....    1
 Number of Electrons    NEL             ....   82
 Basis Dimension        Dim             ....  172

ORBITAL ENERGIES
----------------

  NO   OCC          E(Eh)            E(eV)
   0   2.0000     -20.622858      -561.1765
   1   2.0000     -20.563328      -559.5566
   2   2.0000     -20.536715      -558.8324
   3   2.0000     -15.573163      -423.7673
   4   2.0000     -11.406606      -310.3895
   5   2.0000     -11.310614      -307.7775
   6   2.0000     -11.262447      -306.4668
   7   2.0000     -11.261118      -306.4306
   8   2.0000     -11.254323      -306.2457
   9   2.0000     -11.241205      -305.8887
  10   2.0000     -11.236135      -305.7508
  11   2.0000      -1.466071       -39.8938
  12   2.0000      -1.359563       -36.9956
  13   2.0000      -1.327389       -36.1201
  14   2.0000      -1.241671       -33.7876
  15   2.0000      -1.146468       -31.1970
  16   2.0000      -1.051775       -28.6203
  17   2.0000      -1.007651       -27.4196
  18   2.0000      -0.899163       -24.4675
  19   2.0000      -0.846147       -23.0248
  20   2.0000      -0.806527       -21.9467
  21   2.0000      -0.727117       -19.7859
  22   2.0000      -0.710244       -19.3267
  23   2.0000      -0.699589       -19.0368
  24   2.0000      -0.699107       -19.0237
  25   2.0000      -0.692423       -18.8418
  26   2.0000      -0.641320       -17.4512
  27   2.0000      -0.636624       -17.3234
  28   2.0000      -0.617661       -16.8074
  29   2.0000      -0.604290       -16.4436
  30   2.0000      -0.584406       -15.9025
  31   2.0000      -0.569405       -15.4943
  32   2.0000      -0.541031       -14.7222
  33   2.0000      -0.531204       -14.4548
  34   2.0000      -0.515757       -14.0345
  35   2.0000      -0.488683       -13.2977
  36   2.0000      -0.483754       -13.1636
  37   2.0000      -0.458934       -12.4882
  38   2.0000      -0.454475       -12.3669
  39   2.0000      -0.359270        -9.7762
  40   2.0000      -0.308855        -8.4044
  41   0.0000       0.082393         2.2420
  42   0.0000       0.138369         3.7652
  43   0.0000       0.217927         5.9301
  44   0.0000       0.223025         6.0688
  45   0.0000       0.230823         6.2810

MULLIKEN ATOMIC CHARGES
-----------------------
   0 C :   -0.250490
   1 C :    0.233096
   2 C :   -0.139571
   3 C :   -0.208191
   4 C :   -0.249616
   5 C :   -0.134585
   6 H :    0.212653
   7 H :    0.257360
   8 C :    0.885683
   9 H :    0.211464
  10 N :   -0.930032
  11 O :   -0.649466
  12 O :   -0.767992
  13 H :    0.483468
  14 H :    0.223501
  15 H :    0.441562
  16 H :    0.378538
  17 H :    0.509754
  18 O :   -0.944191
  19 H :    0.437054
Sum of atomic charges:   -0.0000000

LOEWDIN ATOMIC CHARGES
----------------------
   0 C :   -0.191840
   1 C :    0.079019
   2 C :   -0.066075
   3 C :   -0.152955
   4 C :   -0.186654
   5 C :   -0.062275
   6 H :    0.142783
   7 H :    0.162257
   8 C :    0.276878
   9 H :    0.142371
  10 N :   -0.444425
  11 O :   -0.357985
  12 O :   -0.369345
  13 H :    0.358995
  14 H :    0.148545
  15 H :    0.280823
  16 H :    0.260023
  17 H :    0.318529
  18 O :   -0.661182
  19 H :    0.322512

  Mayer bond orders larger than 0.100000
B(  0-C ,  1-C ) :   1.3492 B(  0-C ,  2-C ) :   1.4974 B(  0-C ,  9-H ) :   0.9343
B(  1-C ,  3-C ) :   1.3498 B(  1-C , 10-N ) :   1.0315 B(  2-C ,  4-C ) :   1.3841
B(  2-C , 14-H ) :   0.9339 B(  3-C ,  5-C ) :   1.3649 B(  3-C ,  8-C ) :   1.0600
B(  4-C ,  5-C ) :   1.4927 B(  4-C ,  6-H ) :   0.9380 B(  5-C ,  7-H ) :   0.9128
B(  8-C , 11-O ) :   1.6987 B(  8-C , 12-O ) :   0.9650 B( 10-N , 15-H ) :   0.7482
B( 10-N , 16-H ) :   0.8240 B( 12-O , 13-H ) :   0.7237 B( 17-H , 18-O ) :   0.6822
B( 18-O , 19-H ) :   0.7805

FINAL SINGLE POINT ENERGY      -549.352206812411
FINAL SINGLE POINT ENERGY      -549.354817829354
FINAL SINGLE POINT ENERGY      -549.356634070729
FINAL SINGLE POINT ENERGY      -549.357873014535
FINAL SINGLE POINT ENERGY      -549.358696059283
FINAL SINGLE POINT ENERGY      -549.359223144197
FINAL SINGLE POINT ENERGY      -549.359542863869
FINAL SINGLE POINT ENERGY      -549.359719895371
FINAL SINGLE POINT ENERGY      -549.359800246248
FINAL SINGLE POINT ENERGY      -549.359815969492
FINAL SINGLE POINT ENERGY      -549.358236487755
FINAL SINGLE POINT ENERGY      -549.358234170188
FINAL SINGLE POINT ENERGY      -549.358231949215
FINAL SINGLE POINT ENERGY      -549.358229820180
FINAL SINGLE POINT ENERGY      -549.358227778693
FINAL SINGLE POINT ENERGY      -549.358225820587
FINAL SINGLE POINT ENERGY      -549.358223941926
FINAL SINGLE POINT ENERGY      -549.358222138979
FINAL SINGLE POINT ENERGY      -549.358220408218

CARTESIAN COORDINATES (ANGSTROEM)
---------------------------------
  C      0.000000    0.000000    0.000000
  C      1.410409    0.000000    0.000000
  C     -0.724320    1.183586    0.000000
  C      2.073292    1.253208   -0.044708
  C     -0.064411    2.419058   -0.039207
  C      1.323048    2.445080   -0.047743
  H     -0.629466    3.347001   -0.041088
  H      1.852429    3.392160   -0.071804
  C      3.545723    1.317753    0.000066
  H     -0.520004   -0.956528    0.019731
  N      2.085359   -1.205080   -0.068653
  O      4.312423    0.364488    0.139874
  O      4.032585    2.583306   -0.125203
  H      5.005653    2.480252   -0.067898
  H     -1.811547    1.143588    0.009074
  H      3.068328   -1.165755    0.178380
  H      1.581522   -2.004078    0.295737
  H      1.410409    0.000000   10.000000
  O      1.410409    0.000000   10.957200
  H      2.337036    0.000000   11.197187

FINAL SINGLE POINT ENERGY      -549.358218746295

DIPOLE MOMENT
-------------
                                X             Y             Z
Electronic contribution:      4.22484       1.87605      -9.86727
Nuclear contribution   :     -4.10467      -1.78073       9.69309
                        -----------------------------------------
Total Dipole Moment    :      0.12017       0.09532      -0.17418
                        -----------------------------------------
Magnitude (a.u.)       :      0.23209
Magnitude (Debye)      :      0.58993

Rotational constants in cm-1:     0.026581     0.007855     0.007189
Rotational constants in MHz :   796.891579   235.480619   215.507649

                             ****ORCA TERMINATED NORMALLY****
TOTAL RUN TIME: 0 days 0 hours 5 minutes 18 seconds 677 msec
